 Gaussian 16, Revision C.01,
 Gaussian 16:  ES64L-G16RevC.01  3-Jul-2019

 ----------------------------------------------------------------------
 #P b3lyp/6-31G(d) Symm(None) scf(xqc) pop(None) geom(AllCheck,NoKeepCo
 nstants) guess(Read) irc(RCFC,forward,MaxPoints=30,StepSize=10)
 ----------------------------------------------------------------------

 Structure from the checkpoint file:  "1502984803620600000001_intra_H_migration_6_9_IRC_F.chk"
 ------------------------------
 Gaussian input prepared by ASE
 ------------------------------
 Charge =  0 Multiplicity = 1

 SCF Done:  E(RB3LYP) =  -961.945045028     A.U. after   11 cycles
 SCF Done:  E(RB3LYP) =  -961.947074698     A.U. after   12 cycles
 SCF Done:  E(RB3LYP) =  -961.950223159     A.U. after   12 cycles
 SCF Done:  E(RB3LYP) =  -961.954158895     A.U. after   12 cycles
 SCF Done:  E(RB3LYP) =  -961.958469945     A.U. after   12 cycles
 SCF Done:  E(RB3LYP) =  -961.962749752     A.U. after   12 cycles
 SCF Done:  E(RB3LYP) =  -961.966717861     A.U. after   12 cycles
 SCF Done:  E(RB3LYP) =  -961.970281137     A.U. after   12 cycles
 SCF Done:  E(RB3LYP) =  -961.973459255     A.U. after   11 cycles
 SCF Done:  E(RB3LYP) =  -961.976298136     A.U. after   11 cycles
 SCF Done:  E(RB3LYP) =  -961.993388825     A.U. after   11 cycles
 SCF Done:  E(RB3LYP) =  -961.994193754     A.U. after   10 cycles
 SCF Done:  E(RB3LYP) =  -961.994912350     A.U. after   11 cycles
 SCF Done:  E(RB3LYP) =  -961.995556821     A.U. after   10 cycles
 SCF Done:  E(RB3LYP) =  -961.996131048     A.U. after   10 cycles
 SCF Done:  E(RB3LYP) =  -961.996639326     A.U. after   10 cycles
 SCF Done:  E(RB3LYP) =  -961.997085296     A.U. after   10 cycles
 SCF Done:  E(RB3LYP) =  -961.997472857     A.U. after   10 cycles
 SCF Done:  E(RB3LYP) =  -961.997805804     A.U. after   10 cycles
 SCF Done:  E(RB3LYP) =  -961.998088294     A.U. after   10 cycles

                          Input orientation:
 ---------------------------------------------------------------------
 Center     Atomic      Atomic             Coordinates (Angstroms)
 Number     Number       Type             X           Y           Z
 ---------------------------------------------------------------------
      1          6           0        0.019357   -0.972320    0.123379
      2          9           0        1.111754   -1.491309   -0.427083
      3          9           0       -1.064742   -1.456428   -0.478338
      4          9           0       -0.011603   -1.273332    1.420139
      5         16           0        0.010755    0.903297    0.000136
      6          8           0       -0.023906    1.129991   -1.617380
      7          8           0        1.282585    1.342354    0.537757
      8          8           0       -1.279294    1.371685    0.489428
      9          1           0       -0.912656    1.484837   -1.818870
 ---------------------------------------------------------------------

 Normal termination of Gaussian 16 at Sun Apr  6 16:22:47 2025.
